LAMMPS (23 Jun 2022 - Update 1)
OMP_NUM_THREADS environment is not set. Defaulting to 1 thread. (../comm.cpp:98)
  using 1 OpenMP thread(s) per MPI task
Reading data file ...
  triclinic box = (0 0 0) to (101.4 100.3 101.85) with tilt (7.5724393e-06 7.6894611e-06 7.6894605e-06)
  4 by 4 by 6 MPI processor grid
  reading atoms ...
  27840 atoms
  read_data CPU = 0.078 seconds
WARNING: Ignoring inactive control parameter: simulation_name (../reaxff_control.cpp:98)
WARNING: Ignoring inactive control parameter: energy_update_freq (../reaxff_control.cpp:98)
WARNING: Ignoring inactive control parameter: remove_CoM_vel (../reaxff_control.cpp:98)
WARNING: Ignoring inactive control parameter: q_err (../reaxff_control.cpp:98)
WARNING: Ignoring inactive control parameter: geo_format (../reaxff_control.cpp:98)
WARNING: Support for writing native trajectories has been removed after LAMMPS version 8 April 2021 (../reaxff_control.cpp:114)
WARNING: Ignoring inactive control parameter: traj_compress (../reaxff_control.cpp:98)
WARNING: Ignoring inactive control parameter: traj_title (../reaxff_control.cpp:98)
WARNING: Ignoring inactive control parameter: atom_info (../reaxff_control.cpp:98)
WARNING: Ignoring inactive control parameter: atom_forces (../reaxff_control.cpp:98)
WARNING: Ignoring inactive control parameter: atom_velocities (../reaxff_control.cpp:98)
WARNING: Ignoring inactive control parameter: bond_info (../reaxff_control.cpp:98)
WARNING: Ignoring inactive control parameter: angle_info (../reaxff_control.cpp:98)
WARNING: Van der Waals parameters for element SI indicate shielding without inner wall, but earlier elements indicate a different van der Waals method. This may cause division-by-zero errors. Keeping van der Waals setting for earlier atoms. (../reaxff_ffield.cpp:279)
WARNING: Van der Waals parameters for element X indicate shielding without inner wall, but earlier elements indicate a different van der Waals method. This may cause division-by-zero errors. Keeping van der Waals setting for earlier atoms. (../reaxff_ffield.cpp:279)

CITE-CITE-CITE-CITE-CITE-CITE-CITE-CITE-CITE-CITE-CITE-CITE-CITE

Your simulation uses code contributions which should be cited:
- pair reaxff command:
- fix qeq/reaxff command:
The log file lists these citations in BibTeX format.

CITE-CITE-CITE-CITE-CITE-CITE-CITE-CITE-CITE-CITE-CITE-CITE-CITE

Neighbor list info ...
  update every 1 steps, delay 0 steps, check yes
  max neighbors/atom: 2000, page size: 100000
  master list distance cutoff = 11
  ghost atom cutoff = 11
  binsize = 5.5, bins = 19 19 19
  2 neighbor lists, perpetual/occasional/extra = 2 0 0
  (1) pair reaxff, perpetual
      attributes: half, newton off, ghost
      pair build: half/bin/newtoff/ghost
      stencil: full/ghost/bin/3d
      bin: standard
  (2) fix qeq/reaxff, perpetual, copy from (1)
      attributes: half, newton off
      pair build: copy
      stencil: none
      bin: none
Setting up cg style minimization ...
  Unit style    : real
  Current step  : 0
Per MPI rank memory allocation (min/avg/max) = 69.5 | 291.4 | 685.3 Mbytes
   Step          Temp          PotEng          Pxx            Pyy            Pzz           KinEng    
         0   0             -2495999.9      240444.94      228688.7       199742.58      0            
        44   0             -2970550.6      3413.6424      3176.5667      2584.7135      0            
Loop time of 14.5471 on 96 procs for 44 steps with 27840 atoms

97.8% CPU use with 96 MPI tasks x 1 OpenMP threads

Minimization stats:
  Stopping criterion = energy tolerance
  Energy initial, next-to-last, final = 
     -2495999.89155846  -2970550.00026971  -2970550.57561487
  Force two-norm initial, final = 39264 2322.5831
  Force max component initial, final = 638.42192 196.3687
  Final line search alpha, max atom move = 0.00012696448 0.02493185
  Iterations, force evaluations = 44 121

MPI task timing breakdown:
Section |  min time  |  avg time  |  max time  |%varavg| %total
---------------------------------------------------------------
Pair    | 0.069807   | 2.5413     | 6.6465     | 117.4 | 17.47
Neigh   | 0          | 0          | 0          |   0.0 |  0.00
Comm    | 0.065055   | 3.3319     | 6.0439     |  83.7 | 22.90
Output  | 0          | 0          | 0          |   0.0 |  0.00
Modify  | 7.8213     | 7.8265     | 7.8337     |   0.1 | 53.80
Other   |            | 0.8475     |            |       |  5.83

Nlocal:            290 ave         753 max           0 min
Histogram: 30 9 5 6 9 9 4 12 7 5
Nghost:        2049.91 ave        4826 max         162 min
Histogram: 12 20 9 10 13 5 13 3 4 7
Neighs:        62759.4 ave      205552 max           0 min
Histogram: 34 12 10 8 5 6 10 4 3 4

Total # of neighbors = 6024903
Ave neighs/atom = 216.41175
Neighbor list builds = 0
Dangerous builds = 0
System init for write_data ...
Setting up Verlet run ...
  Unit style    : real
  Current step  : 44
  Time step     : 0.1
Per MPI rank memory allocation (min/avg/max) = 77.26 | 300 | 694.8 Mbytes
   Step          Temp          Press          Volume        Density         PotEng         KinEng    
        44   300            4156.9468      1035857.3      0.51272181    -2970550.6      24894.831    
       100   193.60002      1017.1126      1038522.2      0.51140612    -2961356.5      16065.466    
       200   206.33271      362.32613      1044721.4      0.50837151    -2960506.3      17122.06     
       300   227.16131     -238.34274      1049443.3      0.50608416    -2959926.1      18850.475    
       400   266.71746     -305.11599      1046791        0.50736645    -2960805.8      22132.954    
       500   273.72998     -533.78179      1038393        0.51146973    -2959193.9      22714.872    
       600   303.07578     -783.67888      1026229.1      0.51753219    -2959842.6      25150.068    
       700   308.19661     -171.73331      1016188.5      0.52264575    -2959389.8      25575.009    
       800   304.18854      446.66311      1009991        0.52585283    -2959729.3      25242.408    
       900   293.8513      -323.16066      1006066.1      0.52790427    -2960084.5      24384.595    
      1000   295.93547      144.79518      1000967        0.53059351    -2960442.9      24557.546    
      1100   304.80793     -862.56513      995417.53      0.5335516     -2961400.8      25293.807    
      1200   303.30567      146.40933      992463.48      0.5351397     -2962011.4      25169.145    
      1300   293.46099     -141.84945      991919.56      0.53543315    -2962247.4      24352.206    
      1400   305.89458      93.954493      992018.56      0.53537972    -2963761.5      25383.98     
      1500   293.82972      623.43087      990918.02      0.53597432    -2963487.2      24382.804    
      1600   304.42527     -452.19211      990758.59      0.53606057    -2964825.4      25262.053    
      1700   293.15495     -80.414248      989845.21      0.53655522    -2964439.5      24326.81     
      1800   299.45486      255.05818      988617.7       0.53722143    -2965027.9      24849.594    
      1900   302.55593     -300.62669      987970.03      0.53757361    -2965226.3      25106.929    
      2000   300.27171     -218.54632      987902.55      0.53761033    -2965306        24917.378    
      2100   299.44533      692.26716      986971.95      0.53811723    -2965678.3      24848.803    
      2200   296.84139     -344.58296      985092.45      0.53914393    -2965512.5      24632.721    
      2300   301.74318     -144.02703      982612.41      0.54050469    -2965667.8      25039.485    
      2400   301.48732      346.66029      979728.47      0.54209572    -2965551.7      25018.253    
      2500   301.29401      483.85853      977071.18      0.54357003    -2965626        25002.211    
      2600   302.44254     -31.960318      974921.2       0.54476876    -2966102        25097.52     
      2700   297.28103      113.67215      973467.44      0.54558231    -2966206.2      24669.204    
      2800   296.53862      1424.2349      972415.2       0.54617268    -2966296.8      24607.596    
      2900   303.96573     -265.47443      971074.41      0.54692679    -2966616.3      25223.919    
      3000   303.82325     -541.70001      969093.41      0.54804481    -2966754.1      25212.095    
      3100   301.80909      245.97997      966279.34      0.54964086    -2967299.3      25044.955    
      3200   296.71106     -274.34531      963668.27      0.55113012    -2967481.9      24621.906    
      3300   297.11814      142.93843      961251.04      0.55251603    -2967684.3      24655.687    
      3400   301.65385      351.07173      959793.55      0.55335506    -2967912.9      25032.072    
      3500   301.42682      148.93542      959196.16      0.55369969    -2967938.5      25013.233    
      3600   300.03358      222.23633      958604.5       0.55404144    -2968070.9      24897.618    
      3700   299.64908      196.78227      957917.19      0.55443896    -2968246.6      24865.711    
      3800   301.27583      648.73658      956457.41      0.55528517    -2968595.9      25000.703    
      3900   298.25357     -215.32192      954635.69      0.55634481    -2968614.3      24749.907    
      4000   299.35599     -130.88647      952830.13      0.55739905    -2968756.8      24841.389    
      4100   300.93228      652.44545      951706.28      0.55805728    -2968886.6      24972.195    
      4200   301.17581     -17.124998      951055.25      0.55843929    -2968969.8      24992.404    
      4300   301.06513     -207.45582      950209.7       0.55893621    -2969126.5      24983.219    
      4400   299.49758     -956.11958      948941.51      0.55968319    -2969232.1      24853.139    
      4500   299.97888      231.01639      947423.54      0.56057992    -2969422.9      24893.079    
      4600   300.76969      151.78356      945940.31      0.56145891    -2969644        24958.703    
      4700   300.99063     -427.33617      944799.03      0.56213713    -2969858.2      24977.036    
      4800   300.09325     -543.6787       943594.07      0.56285497    -2970002.5      24902.569    
      4900   298.09561     -255.66047      941716.27      0.56397731    -2970041.9      24736.8      
      5000   299.47588     -20.262701      939547.49      0.56527916    -2970179.9      24851.338    
      5100   302.72166     -63.306943      937617.37      0.56644281    -2970378.4      25120.682    
      5200   298.37376     -430.58695      935832.38      0.56752323    -2970183.4      24759.882    
      5300   299.17281     -1285.9486      933967.04      0.5686567     -2970361.7      24826.189    
      5400   299.20159      1106.9431      931340.94      0.57026014    -2970360.6      24828.577    
      5500   301.06081      506.42187      928966.37      0.57171781    -2970418.7      24982.86     
      5600   300.54229     -215.98982      926921.37      0.57297914    -2970441.6      24939.832    
      5700   299.30489     -767.15421      925236.83      0.57402234    -2970627.4      24837.149    
      5800   298.49706      995.69499      923633.41      0.57501884    -2970835.6      24770.113    
      5900   300.2055       406.23507      922269.1       0.57586946    -2971019.3      24911.884    
      6000   302.53187     -675.28302      920841         0.57676256    -2971203.8      25104.933    
      6100   301.53602     -321.96102      919541.03      0.57757794    -2971311.4      25022.295    
      6200   298.02117     -147.73893      918665.22      0.57812858    -2971370.6      24730.623    
      6300   298.11116      341.88101      918000.7       0.57854707    -2971559        24738.09     
      6400   299.27398     -65.290211      917180.36      0.57906453    -2971566.2      24834.584    
      6500   301.04508     -168.42912      916205.69      0.57968055    -2971533.6      24981.555    
      6600   301.65668      534.75264      915536.96      0.58010396    -2971638.1      25032.307    
      6700   300.90794      76.721734      915053.84      0.58041023    -2971903.5      24970.175    
      6800   299.23245      177.31408      914121.51      0.58100221    -2972139.4      24831.138    
      6900   298.48206      334.3938       913002.15      0.58171453    -2972274.2      24768.869    
      7000   300.56826      390.66231      912097.14      0.58229172    -2972455        24941.987    
      7100   300.96904     -62.195879      911180.87      0.58287726    -2972557.6      24975.245    
      7200   299.56705     -339.06736      910384.8       0.58338695    -2972542.4      24858.904    
      7300   299.45753      398.54016      909795.44      0.58376487    -2972618.2      24849.815    
      7400   299.43365     -80.811066      909049.21      0.58424407    -2972668.6      24847.834    
      7500   299.71076     -490.3823       907901.51      0.58498263    -2972752.7      24870.829    
      7600   300.24791      295.66035      906479.65      0.58590021    -2972845.8      24915.404    
      7700   300.906       -131.76776      905080.15      0.58680617    -2972972.4      24970.014    
      7800   300.24071     -155.29273      903853.27      0.58760269    -2973053.7      24914.806    
      7900   298.67319      89.190837      902694.98      0.58835667    -2973065.3      24784.729    
      8000   298.5932       263.69704      901494.07      0.58914044    -2973078.7      24778.092    
      8100   299.50685      582.83297      900262.93      0.58994611    -2972994.5      24853.908    
      8200   301.76303      477.28052      898821.39      0.59089227    -2973015.6      25041.133    
      8300   301.38568     -746.59479      897607.87      0.59169113    -2973103.4      25009.819    
      8400   298.90781     -215.89128      896439.99      0.59246198    -2973163.2      24804.198    
      8500   298.81748     -555.2537       895317.17      0.59320499    -2973239.9      24796.703    
      8600   301.42401     -13.659621      894194.23      0.59394994    -2973375.3      25013        
      8700   301.20798      861.76274      893135.35      0.59465412    -2973456.2      24995.073    
      8800   298.76259      16.35089       892349.82      0.59517759    -2973511.4      24792.148    
      8900   297.71046     -116.45898      891896.44      0.59548014    -2973447.6      24704.839    
      9000   302.06653     -413.45574      891046.01      0.59604847    -2973609.3      25066.318    
      9100   301.43592      923.4701       890142.66      0.59665336    -2973598.9      25013.988    
      9200   300.11892     -96.833629      889500.15      0.59708434    -2973697.7      24904.699    
      9300   299.6674       825.55182      888660.42      0.59764855    -2973876.8      24867.231    
      9400   299.42663     -533.04415      887832.17      0.59820609    -2974003.3      24847.251    
      9500   299.95508      14.750279      886859.04      0.59886249    -2974223.8      24891.104    
      9600   298.42298     -490.70906      886396.01      0.59917532    -2974234.4      24763.966    
      9700   299.91774     -116.62044      885785.15      0.59958853    -2974333.3      24888.005    
      9800   300.72634      1022.3934      885063.22      0.6000776     -2974352.9      24955.105    
      9900   300.0338      -487.45902      884423.83      0.60051142    -2974339.5      24897.636    
     10000   299.88622     -1331.8081      883777         0.60095093    -2974405.7      24885.389    
     10100   299.404        111.96372      883201.42      0.60134257    -2974447.9      24845.373    
     10200   299.56963      293.67462      883050.18      0.60144556    -2974595.6      24859.118    
     10300   298.52047      213.968        882736.02      0.60165961    -2974628.2      24772.056    
     10400   299.34976     -764.40548      882551.86      0.60178516    -2974635        24840.872    
     10500   302.2115       220.27962      881838.11      0.60227224    -2974700.8      25078.348    
     10600   301.55639     -40.363489      881238.34      0.60268215    -2974614        25023.985    
     10700   301.57848      474.80346      880917.98      0.60290132    -2974874.4      25025.818    
     10800   298.12572     -938.19609      880822.25      0.60296685    -2974776.2      24739.298    
     10900   301.20227     -368.22645      880532.69      0.60316513    -2975076        24994.599    
     11000   299.82898     -185.95864      880222.38      0.60337777    -2975141.7      24880.64     
     11100   298.96319     -446.5186       879511.74      0.60386529    -2975254.2      24808.794    
     11200   299.55725      585.06736      878231.37      0.60474567    -2975413.2      24858.091    
     11300   300.06911      82.597184      876748.48      0.6057685     -2975393.3      24900.566    
     11400   301.9522      -268.66189      875262.41      0.60679701    -2975463.2      25056.83     
     11500   299.29771      1480.4287      873896.21      0.60774564    -2975395.8      24836.554    
     11600   300.34773      379.10412      873030.98      0.60834796    -2975574.3      24923.687    
     11700   298.67963     -431.71453      872248.48      0.60889371    -2975504.5      24785.264    
     11800   301.2039       243.42236      871663.84      0.60930211    -2975551.3      24994.734    
     11900   300.72911     -156.59191      871401.91      0.60948525    -2975384.3      24955.335    
     12000   300.02938      252.34126      871119.74      0.60968267    -2975460.1      24897.269    
     12100   299.98702     -342.65259      870841.25      0.60987765    -2975735.7      24893.754    
     12200   299.9161      -672.17919      870402.48      0.61018509    -2975826.5      24887.869    
     12300   299.49275      1294.3227      869965.53      0.61049156    -2975900.4      24852.738    
     12400   300.9849      -65.72579       869680.63      0.61069156    -2976128.9      24976.561    
     12500   298.43065     -328.73368      869345.75      0.61092679    -2976244.1      24764.602    
     12600   298.86215     -559.38281      869123.43      0.61108307    -2976304.7      24800.41     
     12700   299.79623      443.48426      868557.12      0.61148151    -2976225.2      24877.922    
     12800   300.96001      169.09353      867541.36      0.61219745    -2976205.9      24974.496    
     12900   300.08895      1040.9278      866338.86      0.6130472     -2976163.5      24902.212    
     13000   297.03767     -223.47497      865409.49      0.61370556    -2976234.5      24649.009    
     13100   298.63567     -967.7407       864744.46      0.61417753    -2976492.5      24781.616    
     13200   299.79839      61.256535      863755.42      0.61488079    -2976397.4      24878.101    
     13300   300.15642      806.05554      862629.2       0.61568355    -2976222.3      24907.812    
     13400   300.74584     -231.029        861620.29      0.61640449    -2976169.1      24956.723    
     13500   300.49804     -484.66109      860452.65      0.61724095    -2976257.7      24936.16     
     13600   300.42963     -696.76138      859552.87      0.61788708    -2976379.4      24930.483    
     13700   300.76377      351.83128      858995.83      0.61828776    -2976461.4      24958.211    
     13800   300.00783      85.946375      858562.12      0.6186001     -2976399.6      24895.481    
     13900   300.49257     -914.0663       857944.67      0.6190453     -2976441.2      24935.706    
     14000   298.54556     -46.609466      857015.75      0.61971628    -2976557.7      24774.138    
     14100   299.77908      203.80159      856143.77      0.62034746    -2976800.1      24876.499    
     14200   299.62967      4.0512526      855770.71      0.62061789    -2976796.4      24864.1      
     14300   300.97711     -458.98636      855372.11      0.6209071     -2977051.9      24975.914    
     14400   298.06435      244.17754      854719.21      0.62138139    -2977060        24734.205    
     14500   298.56153      261.51149      854246.04      0.62172558    -2977075.9      24775.463    
     14600   301.90857     -88.715642      853724.92      0.62210508    -2977016.1      25053.21     
     14700   302.01316     -400.06146      853478.9       0.62228441    -2977002.9      25061.889    
     14800   301.43379      18.945187      853232.8       0.6224639     -2977187.4      25013.811    
     14900   300.06084     -565.55751      853153.34      0.62252187    -2977283.7      24899.88     
     15000   299.16322     -262.00678      852671.1       0.62287394    -2977334.8      24825.393    
     15100   299.45105      315.33889      852119.8       0.62327693    -2977404.8      24849.278    
     15200   299.4747      -665.76296      851298.54      0.62387822    -2977488.3      24851.24     
     15300   299.79821     -419.87239      850472.52      0.62448415    -2977663.2      24878.086    
     15400   301.30163      984.29506      849655.61      0.62508457    -2977845.6      25002.844    
     15500   299.8262       278.95009      848514.93      0.62592489    -2977904.6      24880.409    
     15600   300.08535      141.67758      847614.54      0.62658979    -2978129.5      24901.914    
     15700   299.19693      115.75111      846781.18      0.62720644    -2978201.3      24828.19     
     15800   298.0462       474.12184      846102.11      0.62770983    -2978041.2      24732.699    
     15900   300.99308     -1151.5854      845719.21      0.62799403    -2978160.3      24977.239    
     16000   301.71567     -153.9422       845115.35      0.62844275    -2978220.4      25037.203    
     16100   299.42116     -199.90842      844762.46      0.62870528    -2978090.2      24846.797    
     16200   299.73551     -531.28223      844710.14      0.62874422    -2978156.7      24872.883    
     16300   299.78908      350.40693      844353.27      0.62900995    -2978199        24877.329    
     16400   300.78364      659.12707      844030.94      0.62925017    -2978237.6      24959.86     
     16500   300.22486      1002.3313      843503.96      0.62964329    -2978066.4      24913.49     
     16600   302.84625     -34.540403      842971.58      0.63004095    -2978215.6      25131.021    
     16700   301.05786     -536.90923      842419.21      0.63045406    -2978408.1      24982.615    
     16800   299.86937      1308.9346      841793.66      0.63092256    -2978451.8      24883.991    
     16900   299.12498     -112.88763      841548.86      0.6311061     -2978439.5      24822.219    
     17000   300.30134     -764.84772      841192.98      0.63137309    -2978444.1      24919.838    
     17100   300.83784     -38.961064      840543.75      0.63186076    -2978326.1      24964.357    
     17200   302.36731      600.03099      840023.76      0.63225189    -2978460.6      25091.277    
     17300   297.61418     -832.99125      839747         0.63246027    -2978381.9      24696.85     
     17400   299.26207      609.37239      839297.28      0.63279916    -2978473.9      24833.595    
     17500   300.19424      1184.3972      838883.56      0.63311124    -2978366.1      24910.95     
     17600   303.13606     -462.20618      838504.67      0.63339733    -2978573.4      25155.07     
     17700   300.87312     -113.04494      837542.15      0.63412524    -2978653.5      24967.285    
     17800   298.41762      676.32634      836815.36      0.63467599    -2978534        24763.521    
     17900   299.49805      7.7727282      836621.34      0.63482317    -2978504.9      24853.178    
     18000   301.50016      181.28925      836519.67      0.63490033    -2978509.3      25019.319    
     18100   300.90182     -328.82979      836258.78      0.6350984     -2978623.3      24969.667    
     18200   300.13372     -651.04599      835960.65      0.6353249     -2978805.1      24905.928    
     18300   299.51939     -12.133104      835554.76      0.63563352    -2978776.1      24854.949    
     18400   300.98908      575.03103      834803.74      0.63620536    -2978869.1      24976.908    
     18500   300.30118     -1028.1108      834052.69      0.63677825    -2978801.2      24919.824    
     18600   300.62505     -527.99137      833756.97      0.63700411    -2979019.8      24946.699    
     18700   298.38891     -64.218066      833367.59      0.63730173    -2979084.4      24761.138    
     18800   299.69784     -864.57988      833046.68      0.63754724    -2979126.6      24869.757    
     18900   301.66055      470.85747      832510.66      0.63795774    -2979144        25032.628    
     19000   301.16103      979.35168      832163.45      0.63822391    -2979132.4      24991.177    
     19100   297.72506     -222.06309      832147.28      0.63823631    -2979166.3      24706.051    
     19200   298.51269      708.89214      832159.81      0.63822671    -2979261.5      24771.41     
     19300   299.28878     -4.1236961      832336.77      0.63809101    -2979099.5      24835.812    
     19400   301.97153      647.11681      831956.14      0.63838295    -2979237.4      25058.434    
     19500   299.62135     -250.2083       831525.94      0.63871322    -2979192        24863.41     
     19600   298.92875     -325.55704      831150.45      0.63900177    -2979238.9      24805.936    
     19700   300.33707     -861.53621      831002.24      0.63911574    -2979289.4      24922.802    
     19800   301.77381     -17.842074      830722.81      0.63933072    -2979164.3      25042.027    
     19900   303.03069      1335.7299      830241.06      0.63970169    -2979076.4      25146.326    
     20000   300.00323      139.00079      829965.63      0.63991399    -2979048        24895.099    
     20100   300.80586      94.759498      829359.6       0.64038158    -2979275.4      24961.704    
     20200   300.56471     -314.43739      828742.62      0.64085833    -2979329.7      24941.692    
     20300   298.31916      28.417843      828135.72      0.64132798    -2979181.7      24755.351    
     20400   301.41504      2.1898919      827968.94      0.64145717    -2979190.9      25012.255    
     20500   301.6449       392.57924      827513.28      0.64181038    -2979152.9      25031.33     
     20600   301.31348      274.19047      826796.12      0.64236709    -2979258.8      25003.827    
     20700   300.62146      105.78593      825920.67      0.64304798    -2979291.1      24946.402    
     20800   301.16        -1444.2498      825229.39      0.64358665    -2979446.3      24991.091    
     20900   299.62726      79.61537       824602.08      0.64407625    -2979505.2      24863.901    
     21000   300.92874      35.009915      824067.58      0.644494      -2979661.7      24971.901    
     21100   299.46759      137.75638      823267.21      0.64512058    -2979581.3      24850.651    
     21200   301.33226     -603.07503      822261.92      0.64590929    -2979628.2      25005.386    
     21300   302.27186      287.03469      821285.76      0.646677      -2979743.8      25083.357    
     21400   298.12953      327.17274      820641.33      0.64718483    -2979674        24739.614    
     21500   299.23888      11.099501      820117         0.64759859    -2979784.9      24831.671    
     21600   300.07554      84.698686      819624.66      0.6479876     -2979782.2      24901.099    
     21700   300.46248      232.64835      818724.63      0.64869993    -2979717.6      24933.209    
     21800   301.74835      20.03787       817793.78      0.64943832    -2979831.4      25039.914    
     21900   299.3288       1262.27        816948.54      0.65011024    -2979953.9      24839.134    
     22000   299.52193      70.563133      816549.97      0.65042757    -2980111.9      24855.16     
     22100   299.00488      367.77939      816205.98      0.65070169    -2980100        24812.254    
     22200   299.70665     -268.966        815970.33      0.65088961    -2980041.5      24870.489    
     22300   303.71748      499.47394      815347.61      0.65138673    -2980089.2      25203.318    
     22400   301.49404     -604.76425      814819.61      0.65180883    -2980100.6      25018.811    
     22500   300.87665      84.444137      814395.81      0.65214802    -2980214.9      24967.578    
     22600   299.66517     -823.74655      814072.23      0.65240723    -2980243.5      24867.046    
     22700   299.10698     -687.91628      813574.91      0.65280604    -2980379.2      24820.726    
     22800   298.89218     -387.42035      812977.24      0.65328596    -2980429.3      24802.902    
     22900   300.46219      147.33993      812764.61      0.65345686    -2980410.2      24933.185    
     23000   302.03879      195.50477      812235.05      0.6538829     -2980338        25064.016    
     23100   300.9706       54.653098      811759.34      0.6542661     -2980453.1      24975.374    
     23200   299.4801      -215.92723      811202.79      0.65471498    -2980532.7      24851.689    
     23300   298.47982      48.455649      810428.94      0.65534014    -2980540.5      24768.683    
     23400   300.31689     -437.92082      809796.54      0.65585191    -2980635        24921.128    
     23500   301.57807      331.85915      809037.84      0.65646696    -2980670.4      25025.784    
     23600   299.45486     -592.88512      808718.07      0.65672653    -2980537.3      24849.594    
     23700   299.89357      242.23498      808471.91      0.65692649    -2980704.2      24885.999    
     23800   297.57534      452.24311      808470.03      0.65692801    -2980621.8      24693.626    
     23900   301.40427     -237.21558      808701.36      0.6567401     -2980698.3      25011.362    
     24000   300.87784      604.38411      808433.56      0.65695765    -2980606.9      24967.677    
     24100   300.57984      1505.3061      808005.38      0.65730579    -2980729.1      24942.948    
     24200   300.46195     -9.5192281      808148.99      0.65718898    -2980841.9      24933.165    
     24300   300.10846     -414.59746      808393.12      0.65699052    -2980833        24903.831    
     24400   300.01191      526.7853       808719.64      0.65672526    -2980894.8      24895.819    
     24500   297.60206      8.5043265      808800.6       0.65665952    -2980826.9      24695.843    
     24600   300.72566     -103.66526      808754.69      0.65669679    -2981001.2      24955.048    
     24700   301.3984      -623.2715       808458.55      0.65693734    -2980955.8      25010.875    
     24800   300.54197      510.36261      808302.74      0.65706398    -2980974.4      24939.805    
     24900   298.93263      37.056093      807945.3       0.65735467    -2981100        24806.258    
     25000   299.18897      47.34139       807330.62      0.65785516    -2981164.6      24827.53     
     25100   299.67285      613.34425      806361.24      0.65864601    -2981135.7      24867.684    
     25200   302.36683     -725.76057      805644.49      0.65923198    -2980998.8      25091.238    
     25300   300.57026     -844.70756      804866.16      0.65986948    -2980802.1      24942.153    
     25400   300.82115      249.13211      803926.55      0.66064072    -2980971.2      24962.973    
     25500   298.80904      711.74905      802896.83      0.66148799    -2980942.9      24796.002    
     25600   299.74355      761.74931      802255.23      0.66201702    -2981000.6      24873.551    
     25700   302.22028     -1021.2928      801831.01      0.66236727    -2981111        25079.076    
     25800   301.66907     -488.61277      801509.3       0.66263313    -2981124.3      25033.336    
     25900   297.8296       1205.6907      800668.73      0.66332878    -2981042        24714.726    
     26000   300.05136     -474.64124      800019.85      0.66386679    -2981280.8      24899.093    
     26100   298.84588     -440.52748      799169.57      0.66457312    -2981240.9      24799.059    
     26200   298.20343      798.75373      798523.54      0.66511078    -2981425.3      24745.747    
     26300   298.45075     -291.52311      798625.49      0.66502587    -2981510.7      24766.271    
     26400   300.3189      -735.08617      798719.35      0.66494773    -2981418.7      24921.294    
     26500   300.7647       956.69013      798412.76      0.66520306    -2981360.8      24958.288    
     26600   300.20318     -76.169916      797911.26      0.66562116    -2981365.3      24911.692    
     26700   299.20574      44.778715      797326.86      0.66610902    -2981354.5      24828.921    
     26800   298.37892      996.816        797280.34      0.66614789    -2981383.6      24760.31     
     26900   298.52448      430.35375      797601.35      0.66587978    -2981607.9      24772.389    
     27000   299.81552     -43.701132      797416.71      0.66603396    -2981835.1      24879.523    
     27100   298.0157       943.12443      796713.71      0.66662166    -2981697.7      24730.169    
     27200   301.35602     -490.18675      795935.29      0.66727361    -2981705.7      25007.357    
     27300   301.36942      13.418454      794770.63      0.66825143    -2981660        25008.469    
     27400   299.5417       509.43555      793665.03      0.66918233    -2981753.8      24856.801    
     27500   299.1096      -601.86136      793183.39      0.66958867    -2981772.4      24820.944    
     27600   300.25892     -23.919404      792683.39      0.67001103    -2981848.7      24916.317    
     27700   298.89787      468.41278      791906.11      0.67066866    -2981816.7      24803.374    
     27800   300.85899     -1124.5716      791327.04      0.67115944    -2981830.3      24966.113    
     27900   303.62631      604.36943      790759.04      0.67164153    -2981804.2      25195.752    
     28000   300.15298      109.62014      790642.5       0.67174053    -2981697.7      24907.526    
     28100   300.04388     -561.17807      790455.12      0.67189977    -2981776        24898.472    
     28200   300.79435      362.07071      790433.65      0.67191802    -2981906.2      24960.749    
     28300   299.3666       224.93605      790428.59      0.67192232    -2981832        24842.27     
     28400   301.04845     -419.16214      790175.07      0.6721379     -2981903.2      24981.835    
     28500   302.09968     -254.70831      790110.88      0.67219251    -2981835.8      25069.069    
     28600   299.9599       437.25998      790157.04      0.67215324    -2981689.6      24891.503    
     28700   298.51681     -204.05855      790231.37      0.67209001    -2981786.2      24771.752    
     28800   299.0282       650.74712      790024.07      0.67226637    -2981915.4      24814.189    
     28900   301.64563      885.20507      789766.91      0.67248527    -2981937        25031.39     
     29000   301.92425     -468.22181      789548.97      0.6726709     -2981807.6      25054.511    
     29100   299.16001      1035.1923      789186.45      0.67297989    -2981787        24825.126    
     29200   299.7364       585.10006      788696.19      0.67339822    -2981940        24872.957    
     29300   299.01865     -262.9286       788010.62      0.67398408    -2981904.8      24813.396    
     29400   300.67197      719.73708      787151.3       0.67471986    -2982023.3      24950.594    
     29500   298.75625      324.41146      786413.87      0.67535256    -2981870.7      24791.621    
     29600   301.49976     -446.57619      785995.81      0.67571177    -2981874.3      25019.285    
     29700   301.13106      506.39174      785461.57      0.67617136    -2981785.8      24988.69     
     29800   302.45787      599.14392      784982.99      0.6765836     -2982103.6      25098.792    
     29900   300.06965      267.40883      784466.57      0.67702899    -2982033.6      24900.611    
     30000   300.61098     -94.445397      784246.91      0.67721862    -2982113.6      24945.532    
     30100   298.37219     -631.52309      783848.77      0.6775626     -2982013.7      24759.752    
     30200   299.13845      554.06788      783153.15      0.67816444    -2982098.7      24823.337    
     30300   300.78665     -926.17951      782756.5       0.67850809    -2982099        24960.11     
     30400   300.87754     -34.738111      782382.16      0.67883272    -2981997.9      24967.652    
     30500   300.94264     -108.08951      782086.92      0.67908898    -2982168.8      24973.055    
     30600   298.93493     -868.978        781573.44      0.67953513    -2982254.9      24806.449    
     30700   299.35518     -493.47983      780913.75      0.68010919    -2982221.6      24841.322    
     30800   300.05381      1661.2949      780179.68      0.6807491     -2982199.5      24899.297    
     30900   303.31721      36.73553       780143.11      0.68078101    -2982280.8      25170.103    
     31000   301.69255     -547.91303      780377.89      0.68057619    -2982135.5      25035.284    
     31100   300.44058      1431.7441      780297.16      0.68064661    -2982372.5      24931.392    
     31200   300.1035      -195.83845      779882.83      0.68100821    -2982434.9      24903.42     
     31300   299.30441     -40.695687      779341.01      0.68148167    -2982336.2      24837.109    
     31400   302.22004     -534.72895      779078.03      0.6817117     -2982406        25079.056    
     31500   300.1926      -93.943773      778949.46      0.68182423    -2982202.6      24910.813    
     31600   299.82088      342.04001      778630.27      0.68210373    -2982439.6      24879.967    
     31700   298.87111      294.7273       777978.11      0.68267552    -2982534.9      24801.153    
     31800   299.1296      -167.07183      777485.6       0.68310798    -2982465.4      24822.603    
     31900   300.91949      136.44043      776957.57      0.68357222    -2982418.9      24971.133    
     32000   303.33717     -600.40181      776661.92      0.68383244    -2982556.1      25171.759    
     32100   299.32689     -1192.0358      776014.23      0.68440319    -2982637.4      24838.975    
     32200   299.67495      343.49673      775264.76      0.68506482    -2982705.8      24867.858    
     32300   298.82232     -35.497792      775029.72      0.68527258    -2982448.3      24797.104    
     32400   300.2893       265.46832      774533.16      0.68571191    -2982321.5      24918.838    
     32500   301.21009     -1093.1025      774250.77      0.68596201    -2982368.2      24995.248    
     32600   300.66225      1078.2448      773657.22      0.68648828    -2982552        24949.786    
     32700   298.54632     -313.01542      773511.14      0.68661792    -2982478.1      24774.201    
     32800   300.6817       219.45747      773345.74      0.68676478    -2982582        24951.401    
     32900   299.87338     -265.86624      773014.28      0.68705925    -2982550.2      24884.324    
     33000   298.91795      571.07076      772440.86      0.68756929    -2982617.1      24805.039    
     33100   296.73835     -1428.0067      772118.42      0.68785642    -2982611.9      24624.171    
     33200   300.88504      779.60489      771431.29      0.68846911    -2982844.4      24968.274    
     33300   301.74994      1065.3         770921.9       0.68892402    -2982822.3      25040.046    
     33400   298.86879     -616.25316      770570.47      0.68923821    -2982855.5      24800.96     
     33500   297.83321     -42.753087      770396.05      0.68939425    -2982906        24715.025    
     33600   300.80637     -673.66491      770236.71      0.68953687    -2983007.3      24961.746    
     33700   300.779        545.28419      769839.23      0.6898929     -2982887.6      24959.475    
     33800   300.50004      1065.5288      769215.79      0.69045204    -2982846.5      24936.326    
     33900   298.0258      -343.92381      768948.35      0.69069219    -2982998.8      24731.007    
     34000   298.28907     -256.25656      768372.47      0.69120984    -2983044.3      24752.854    
     34100   299.89997      1678.5184      767792.03      0.69173239    -2982949.5      24886.53     
     34200   300.44691     -1412.3613      767494.19      0.69200083    -2982925.9      24931.917    
     34300   299.84669     -731.92539      767056.95      0.69239528    -2982947.7      24882.109    
     34400   298.35843     -782.18778      766658.21      0.6927554     -2982881.2      24758.609    
     34500   299.85522      1400.142       766485.37      0.69291161    -2982881.7      24882.817    
     34600   302.2916      -604.33007      766534.08      0.69286758    -2982878.5      25084.995    
     34700   301.15351      906.94521      766170.72      0.69319617    -2982797.8      24990.552    
     34800   299.33422      379.62524      765931.44      0.69341274    -2982924.1      24839.583    
     34900   299.1088      -997.67957      765873.84      0.69346488    -2982997        24820.877    
     35000   300.80861     -446.12699      766131.8       0.69323139    -2983120.6      24961.932    
     35100   298.7373      -1115.5453      766376.51      0.69301004    -2983000.8      24790.049    
     35200   298.73317      788.58986      766337.69      0.69304515    -2982969.8      24789.706    
     35300   302.69681     -1034.5181      766429.59      0.69296204    -2982987.8      25118.62     
     35400   300.0283      -5.9176616      765988.64      0.69336095    -2982733.9      24897.18     
     35500   299.45552      706.40328      765710.06      0.69361321    -2982840.4      24849.648    
     35600   298.30405     -914.70102      765774.93      0.69355446    -2982959.7      24754.097    
     35700   298.18657     -971.02204      765629.16      0.6936865     -2982928.5      24744.348    
     35800   301.88277      1091.5766      765160.13      0.69411172    -2982980.4      25051.069    
     35900   299.44408      379.25104      764376.27      0.69482352    -2982789.5      24848.699    
     36000   299.01867     -731.42743      763673.67      0.69546278    -2982755.7      24813.398    
     36100   300.24554      1048.3925      763134.65      0.695954      -2982794.9      24915.207    
     36200   299.7124      -399.16645      763112.99      0.69597376    -2982890.6      24870.965    
     36300   298.66309     -400.36086      763151.49      0.69593864    -2983062.4      24783.89     
     36400   297.35751     -1187.4692      762988.33      0.69608747    -2982886.6      24675.55     
     36500   300.50749      1452.2487      762287.88      0.69672709    -2982990.5      24936.944    
     36600   299.88399     -877.62453      762114.22      0.69688584    -2982942.3      24885.204    
     36700   301.33252      1362.0168      761840.16      0.69713654    -2983060.7      25005.408    
     36800   300.83105     -308.74921      761806.29      0.69716754    -2983026.8      24963.794    
     36900   299.05474     -451.28013      762113.11      0.69688686    -2983015.8      24816.391    
     37000   298.44009      404.37873      762209.61      0.69679864    -2983095.3      24765.386    
     37100   299.64735     -215.60063      762609         0.69643371    -2983125.6      24865.568    
     37200   300.06925      184.41561      762666.01      0.69638165    -2982981        24900.578    
     37300   302.70623      350.74545      762404.9       0.69662014    -2983039.6      25119.402    
     37400   301.71491     -915.66238      761984.47      0.69700451    -2982851.6      25037.139    
     37500   300.68249      866.3566       761087.76      0.69782572    -2982772.6      24951.466    
     37600   300.02607     -663.3321       761102.78      0.69781195    -2982804.8      24896.995    
     37700   301.60902     -1518.6881      760943.3       0.6979582     -2983086.5      25028.352    
     37800   298.66383      231.70443      760432.49      0.69842704    -2983065.7      24783.952    
     37900   299.43379      255.65147      759952.62      0.69886806    -2983109.2      24847.846    
     38000   299.66164      1687.1943      759546.13      0.69924208    -2982943.3      24866.753    
     38100   302.48136     -227.12243      759361.68      0.69941192    -2983093.8      25100.741    
     38200   300.65896     -758.53365      759342.59      0.69942951    -2983039.3      24949.513    
     38300   299.81986     -538.30662      759001.29      0.69974402    -2983099.6      24879.883    
     38400   299.83975     -958.51423      758543.09      0.70016671    -2983267.5      24881.533    
     38500   300.09497      678.20192      757601.35      0.70103705    -2983429.3      24902.712    
     38600   297.95086     -979.25859      756961.21      0.70162989    -2983272.7      24724.788    
     38700   300.57349     -776.3109       756616.64      0.70194942    -2983365.8      24942.421    
     38800   302.47566      858.98976      756026.74      0.70249713    -2983295.8      25100.268    
     38900   300.80756      324.81862      755743.4       0.7027605     -2983230.7      24961.845    
     39000   300.97224     -364.0306       755357.85      0.70311921    -2983492.7      24975.51     
     39100   298.47668     -497.41031      755382.39      0.70309636    -2983364.2      24768.422    
     39200   300.75938      469.29363      755715.5       0.70278645    -2983465.4      24957.847    
     39300   299.4493      -1257.8096      756251.84      0.70228803    -2983263.7      24849.133    
     39400   303.02097      43.897507      756249.12      0.70229056    -2983345.6      25145.52     
     39500   302.64768      699.65988      755873.15      0.70263987    -2983080.3      25114.543    
     39600   300.68935     -275.71721      755198.25      0.7032678     -2983172.3      24952.035    
     39700   302.0388       352.75511      754695.78      0.70373603    -2983490.6      25064.016    
     39800   299.49524     -363.02235      754466.79      0.70394963    -2983460        24852.945    
     39900   301.12803      156.65357      753971.4       0.70441215    -2983686.1      24988.438    
     40000   297.86305      37.458915      753367.86      0.70497647    -2983522.6      24717.501    
     40100   299.64795      122.35903      752581.22      0.70571335    -2983627.5      24865.617    
     40200   301.73242     -1311.848       751977.49      0.70627994    -2983602.7      25038.592    
     40300   302.35838     -965.62507      751602.48      0.70663234    -2983576        25090.536    
     40400   299.9883      -103.62181      751240.02      0.70697327    -2983581.6      24893.86     
     40500   298.53298      632.43812      750422.99      0.70774299    -2983644.1      24773.094    
     40600   297.7468       208.6868       749572.11      0.70854639    -2983545.5      24707.854    
     40700   300.96205      404.22467      748828.57      0.70924993    -2983567.9      24974.665    
     40800   300.47194      360.85818      748380.77      0.70967432    -2983517.7      24933.995    
     40900   301.73194     -108.44263      748004.99      0.71003084    -2983721.5      25038.553    
     41000   299.66873      398.40171      747608.33      0.71040757    -2983763.4      24867.341    
     41100   299.85826      98.369119      747452.98      0.71055522    -2983911.5      24883.069    
     41200   296.98857     -508.94314      747161.98      0.71083196    -2983744.7      24644.934    
     41300   301.00068      1294.9041      746565.86      0.71139954    -2983735.8      24977.87     
     41400   302.06151     -872.19846      746525.69      0.71143783    -2983709.2      25065.901    
     41500   301.04086      1791.0778      746180.49      0.71176695    -2983751.5      24981.205    
     41600   297.63792     -666.88366      745940.25      0.71199619    -2983631.3      24698.819    
     41700   300.79128     -1069.6856      745699.56      0.712226      -2983871.3      24960.494    
     41800   299.69777      696.47617      745417.88      0.71249513    -2983891.6      24869.752    
     41900   296.51053      1431.0748      745071.79      0.7128261     -2983864        24605.265    
     42000   299.71003     -264.35297      744960.24      0.71293283    -2983910.9      24870.768    
     42100   299.74295      402.86651      744811.29      0.7130754     -2983783.6      24873.5      
     42200   300.42895     -1149.7566      744619.82      0.71325876    -2983776.3      24930.427    
     42300   300.33701      151.22977      744271.94      0.71359215    -2983821.4      24922.797    
     42400   299.37492      439.10209      744120.36      0.71373751    -2983893.9      24842.96     
     42500   297.14523     -587.905        744042.48      0.71381222    -2983841.1      24657.935    
     42600   299.70749     -79.107523      743719.43      0.71412228    -2983794.2      24870.558    
     42700   300.51405      725.91192      743494.39      0.71433842    -2983697.1      24937.488    
     42800   299.86594      1317.1804      743091.55      0.71472568    -2983689.8      24883.707    
     42900   299.30205     -887.90603      742696.86      0.7151055     -2983718.5      24836.914    
     43000   297.85858     -231.14934      742326.13      0.71546264    -2983800        24717.13     
     43100   299.3782      -497.37883      742292.01      0.71549553    -2984057.8      24843.232    
     43200   298.59479      431.41749      742302.69      0.71548524    -2983964.2      24778.223    
     43300   300.0467       177.39434      742025.68      0.71575234    -2983754.8      24898.706    
     43400   300.11437      417.64448      741773.44      0.71599573    -2983722.1      24904.322    
     43500   299.91835     -216.26162      741500.92      0.71625887    -2983811.6      24888.055    
     43600   299.86892     -3.3656353      741176.76      0.71657214    -2984058.5      24883.954    
     43700   297.80782     -506.83817      741176.63      0.71657226    -2983996.8      24712.918    
     43800   299.51677      1744.5716      741126.66      0.71662057    -2984030.3      24854.731    
     43900   300.48839      683.36406      741280.57      0.71647179    -2983999.6      24935.36     
     44000   298.09351     -526.75645      741319.66      0.716434      -2983782.6      24736.626    
     44100   301.69223      330.04331      741098.4       0.7166479     -2983886.4      25035.257    
     44200   303.2207       521.11831      741228.65      0.71652197    -2983929        25162.094    
     44300   301.2303      -1100.2466      741644.22      0.71612048    -2984085.1      24996.925    
     44400   298.83479     -1153.813       741713.68      0.71605341    -2983974.1      24798.139    
     44500   302.26337      1049.8109      741377.19      0.71637841    -2984167.5      25082.652    
     44600   300.03914     -739.22883      741139.5       0.71660816    -2983946.5      24898.08     
     44700   298.37193      123.31077      740798.89      0.71693764    -2983975        24759.729    
     44800   298.14743      24.155055      740457.35      0.71726834    -2984138.5      24741.1      
     44900   299.74739      114.88793      740319.05      0.71740233    -2984075.1      24873.869    
     45000   302.71978     -993.3769       740087.85      0.71762645    -2984170.9      25120.526    
     45100   301.72952      47.034131      739516.92      0.71818048    -2984144.1      25038.351    
     45200   299.70645     -905.16502      739195.77      0.7184925     -2984104.2      24870.472    
     45300   298.47088      582.99471      738891.61      0.71878826    -2984060.2      24767.941    
     45400   302.03787     -609.98763      738638.14      0.71903491    -2984082.2      25063.939    
     45500   303.02382      8.1981542      738228.91      0.71943351    -2984067.6      25145.756    
     45600   299.32685      1095.1246      737924.23      0.71973055    -2983986.8      24838.971    
     45700   300.00596     -1764.0208      737738.52      0.71991173    -2984132.2      24895.326    
     45800   298.44719      457.48369      737312.73      0.72032747    -2983989.2      24765.975    
     45900   301.02921     -465.02401      737466.34      0.72017743    -2984123.9      24980.238    
     46000   297.38759      797.27952      737433.69      0.72020931    -2983924.2      24678.047    
     46100   300.12048      473.82618      737239.78      0.72039874    -2984442.4      24904.829    
     46200   297.83713     -751.98404      737135.8       0.72050037    -2984363.4      24715.35     
     46300   298.57011      1300.7533      736691.9       0.72093451    -2984261.8      24776.175    
     46400   301.30021      1173.4863      736315.39      0.72130316    -2984222.7      25002.726    
     46500   302.18903     -1563.571       736286.59      0.72133137    -2984305.7      25076.483    
     46600   299.21047     -488.54066      736317.08      0.7213015     -2984209.2      24829.314    
     46700   301.87968      739.61822      736239.54      0.72137747    -2984446.7      25050.812    
     46800   299.57754     -505.19078      736171.14      0.72144449    -2984286        24859.774    
     46900   299.94742      576.75592      735910.25      0.72170026    -2984496.3      24890.468    
     47000   298.33844     -257.32063      735720.33      0.72188655    -2984504.9      24756.95     
     47100   299.34124     -364.02038      735152.05      0.72244458    -2984405.6      24840.165    
     47200   297.67362      839.15377      734452.07      0.72313311    -2984065        24701.782    
     47300   301.01386      129.27882      733941.93      0.72363574    -2984270.4      24978.964    
     47400   298.0612       235.13393      733481.61      0.72408989    -2984066.4      24733.945    
     47500   302.42414     -233.34383      732866.34      0.72469779    -2984406        25095.993    
     47600   300.26567      385.81743      732281.6       0.72527647    -2984369.9      24916.877    
     47700   298.21922      452.71039      732223.18      0.72533433    -2984460.9      24747.057    
     47800   298.15178     -376.56894      731901.51      0.72565312    -2984548.1      24741.461    
     47900   300.72177     -852.54252      731438.72      0.72611225    -2984584.2      24954.726    
     48000   301.10199     -391.00637      730871.09      0.72667618    -2984478.1      24986.277    
     48100   299.72778     -86.66394       730449.58      0.72709552    -2984402.8      24872.241    
     48200   298.56829     -660.02122      730160.67      0.72738321    -2984690.8      24776.024    
     48300   296.81468      319.61549      730061.54      0.72748198    -2984617        24630.505    
     48400   300.62893     -87.408615      729755.05      0.72778751    -2984690.2      24947.021    
     48500   300.6048       1213.8556      729331.63      0.72821003    -2984538.8      24945.019    
     48600   300.10046     -1068.3293      729071.42      0.72846993    -2984439.4      24903.167    
     48700   300.52285     -1363.0692      728725.94      0.7288153     -2984524.3      24938.219    
     48800   297.51085      853.40915      728311.12      0.72923041    -2984539.9      24688.275    
     48900   301.32035      365.33327      728030.13      0.72951186    -2984779.8      25004.397    
     49000   299.12232     -422.04121      727894.32      0.72964798    -2984489.7      24821.999    
     49100   302.42097     -930.76981      727803.16      0.72973936    -2984409.4      25095.73     
     49200   301.09242     -237.99784      727432.03      0.73011167    -2984274.7      24985.483    
     49300   299.78962      188.72208      727132.22      0.73041271    -2984331.3      24877.373    
     49400   300.34214      1059.9         726656.8       0.73089058    -2984535.3      24923.223    
     49500   300.26447     -965.30671      726405.32      0.73114361    -2984636.5      24916.778    
     49600   299.29451     -311.62385      725857.46      0.73169547    -2984567.4      24836.287    
     49700   299.2004      -244.89653      725519.64      0.73203616    -2984507.5      24828.478    
     49800   300.70091      469.98043      725187.78      0.73237115    -2984591        24952.995    
     49900   298.59776      411.82257      724936.49      0.73262503    -2984434.1      24778.47     
     50000   299.45464     -1027.829       724886.74      0.7326753     -2984557.5      24849.576    
     50100   300.43029     -121.63098      724750.16      0.73281338    -2984662.4      24930.538    
     50200   300.79891     -768.15578      724706.44      0.73285758    -2984728.4      24961.127    
     50300   297.94866      364.66506      724688.22      0.73287601    -2984692.9      24724.606    
     50400   299.57303      445.46034      724528.62      0.73303746    -2984782.7      24859.4      
     50500   301.17368      279.7169       724372.5       0.73319544    -2984663.6      24992.227    
     50600   303.10599      544.74876      723922.12      0.73365159    -2984741.8      25152.575    
     50700   300.30213      272.73271      723794.86      0.73378058    -2984694.4      24919.903    
     50800   300.14948      1378.7058      723724.42      0.733852      -2984752.1      24907.236    
     50900   300.6052       772.83955      723557.45      0.73402135    -2984861.7      24945.052    
     51000   297.3879      -80.172138      723415.89      0.73416498    -2984715.5      24678.072    
     51100   301.65274     -219.72718      723211.28      0.73437269    -2984842        25031.98     
     51200   302.30502      722.9946       722931.9       0.73465649    -2984687.2      25086.108    
     51300   300.21862     -901.08358      722763.88      0.73482728    -2984659.8      24912.973    
     51400   299.73683     -459.33244      722190.8       0.73541039    -2984780.4      24872.993    
     51500   299.39126     -140.67627      721598.93      0.73601359    -2984829.4      24844.317    
     51600   298.92182     -426.01329      721539.49      0.73607421    -2984832.7      24805.361    
     51700   299.06792     -828.07634      721482.6       0.73613225    -2984911.5      24817.485    
     51800   298.74934     -758.79288      721220.8       0.73639947    -2984948.1      24791.048    
     51900   299.69395      382.53839      720954.58      0.7366714     -2984951.5      24869.435    
     52000   302.92585     -149.63963      720907.46      0.73671954    -2985084.9      25137.626    
     52100   299.32288      50.991188      721070.42      0.73655305    -2984976.5      24838.642    
     52200   300.08027     -869.62703      720964.19      0.73666157    -2985222.1      24901.492    
     52300   297.79776      135.71534      720270.4       0.73737115    -2985173.5      24712.083    
     52400   299.22795      20.944982      719580.35      0.73807826    -2985168.1      24830.764    
     52500   300.25358     -177.65389      718836.33      0.7388422     -2984945.3      24915.874    
     52600   301.68119      74.712016      718675.98      0.73900705    -2985023.5      25034.341    
     52700   300.62688      837.92926      718636.96      0.73904717    -2985155.4      24946.852    
     52800   299.19475     -79.267061      718686.62      0.73899611    -2985158.3      24828.009    
     52900   301.0747      -1363.2422      718487.14      0.73920128    -2985214.3      24984.013    
     53000   300.96634      357.00054      718099.05      0.73960078    -2985209.4      24975.021    
     53100   298.86222      363.45451      718032.23      0.7396696     -2985399.5      24800.415    
     53200   297.90358     -1054.886       718039.91      0.73966169    -2985371.6      24720.865    
     53300   299.39348      470.98124      717761.5       0.7399486     -2985262.2      24844.501    
     53400   300.21901      264.55812      717150.87      0.74057864    -2985128.3      24913.006    
     53500   302.92281     -515.97942      716860.72      0.74087839    -2985264.8      25137.375    
     53600   299.64456     -1109.772       716655.5       0.74109055    -2985135.8      24865.336    
     53700   300.58489      283.85868      716305.54      0.74145261    -2985211.5      24943.367    
     53800   301.67188      1154.6638      716048.41      0.74171886    -2985085.9      25033.568    
     53900   304.47071     -901.25355      715913.41      0.74185873    -2984988.6      25265.823    
     54000   301.69486      455.24886      715660.96      0.74212043    -2984902        25035.475    
     54100   301.59721      61.617672      715535.54      0.7422505     -2985042.8      25027.372    
     54200   299.56848      730.18638      715631.95      0.7421505     -2985077.7      24859.022    
     54300   298.72941     -1282.1153      716177.24      0.74158544    -2985078.3      24789.394    
     54400   300.97084      413.30514      716101.67      0.7416637     -2985157.5      24975.394    
     54500   302.35789     -452.02982      716190.92      0.74157128    -2985006.8      25090.495    
     54600   302.8242       539.74853      716063.55      0.74170318    -2984882        25129.191    
     54700   300.40116      351.5266       715838.86      0.74193599    -2985005.3      24928.12     
     54800   299.69891      29.995362      715508.8       0.74227824    -2985062.4      24869.846    
     54900   299.49005      114.28687      715269         0.74252709    -2985074.6      24852.514    
     55000   298.56323     -78.823642      714700.86      0.74311735    -2985037.3      24775.604    
     55100   302.16889     -487.17165      714200.19      0.7436383     -2985230        25074.812    
     55200   299.68903      908.80517      713698.87      0.74416065    -2984965.3      24869.026    
     55300   300.65943      348.16484      713349.57      0.74452504    -2985026.8      24949.553    
     55400   297.31386     -14.897498      712990.54      0.74489994    -2984972.4      24671.928    
     55500   299.22224      649.91585      712922.7       0.74497083    -2985105.3      24830.29     
     55600   300.08088     -327.23874      712827.52      0.7450703     -2985004.6      24901.543    
     55700   301.08918     -207.08101      712571.19      0.74533832    -2984966.3      24985.215    
     55800   299.01454     -145.87625      711944.69      0.74599421    -2985001.7      24813.055    
     55900   299.06575      1199.4858      711510.81      0.74644912    -2985285.4      24817.305    
     56000   299.11236      69.614472      711481.56      0.7464798     -2985287.6      24821.172    
     56100   300.2539      -1343.9009      711728.58      0.74622072    -2985177.8      24915.901    
     56200   300.76602      187.96442      711647.95      0.74630526    -2985228.1      24958.398    
     56300   298.54945      953.42493      711392.4       0.74657336    -2985305.9      24774.46     
     56400   297.78333     -1658.9373      711020.37      0.74696399    -2985384.3      24710.886    
     56500   301.62582     -112.78482      710520.94      0.74748903    -2985388.8      25029.747    
     56600   301.20173      1666.9578      710238.06      0.74778675    -2985222.3      24994.554    
     56700   301.08477     -620.32303      710233.37      0.74779169    -2985282.3      24984.848    
     56800   299.20355     -0.66258647     709904.41      0.7481382     -2985291.7      24828.74     
     56900   298.57637      201.8267       709292.9       0.74878321    -2985474        24776.694    
     57000   297.65852      106.90912      708493.14      0.74962845    -2985398.9      24700.529    
     57100   299.50821     -1356.268       707786.28      0.7503771     -2985424.5      24854.021    
     57200   297.92122      680.7979       707135.36      0.75106782    -2985257.1      24722.328    
     57300   299.76869      269.70293      706833.07      0.75138903    -2985406        24875.637    
     57400   299.98873     -150.26047      706529.35      0.75171203    -2985486.1      24893.896    
     57500   297.82563      862.43222      706012.63      0.75226219    -2985581.5      24714.396    
     57600   296.62921     -843.73121      705753.78      0.7525381     -2985491.2      24615.114    
     57700   299.39049      404.79411      705726.87      0.7525668     -2985436.5      24844.252    
     57800   300.85711     -568.18264      705570.97      0.75273309    -2985448.2      24965.957    
     57900   300.01417      458.52986      705257.39      0.75306777    -2985480.4      24896.007    
     58000   298.74476      302.51216      705156.61      0.75317541    -2985520.2      24790.668    
     58100   299.02361     -441.68109      704963.71      0.7533815     -2985487.8      24813.808    
     58200   301.33689     -218.67989      704475.78      0.7539033     -2985334.6      25005.77     
     58300   301.54175      291.30437      703920.56      0.75449795    -2985349.7      25022.77     
     58400   298.15992     -968.9598       703596.66      0.75484527    -2985318.1      24742.136    
     58500   299.65433     -154.23555      703185.08      0.75528709    -2985444.4      24866.147    
     58600   300.44971      447.49954      702982.83      0.75550438    -2985381.2      24932.15     
     58700   300.61101      1898.4688      702604.74      0.75591094    -2985333.6      24945.535    
     58800   300.01267     -522.04409      702322.5       0.75621472    -2985390.1      24895.883    
     58900   297.63132     -463.17468      701939.93      0.75662688    -2985584.5      24698.272    
     59000   298.78904     -268.45127      701798.12      0.75677976    -2985593.7      24794.342    
     59100   299.68862     -55.104346      701855.37      0.75671803    -2985463.6      24868.993    
     59200   301.53581      14.786541      701790.64      0.75678783    -2985521.6      25022.277    
     59300   300.37148      546.59308      701433.23      0.75717344    -2985576.1      24925.658    
     59400   298.98199     -872.09897      701241.33      0.75738064    -2985707        24810.354    
     59500   298.40242      328.15458      700987.53      0.75765487    -2985646.6      24762.26     
     59600   300.44778      594.93867      700746.13      0.75791587    -2985655        24931.989    
     59700   298.98598      607.68891      700580.14      0.75809545    -2985418.5      24810.685    
     59800   301.72173     -1091.9435      700476.11      0.75820803    -2985584.1      25037.705    
     59900   299.18478      820.27862      700194.22      0.75851328    -2985711.6      24827.182    
     60000   296.92533     -260.877        700037.61      0.75868297    -2985565.9      24639.686    
     60100   300.24373      816.50617      700257.39      0.75844485    -2985635.1      24915.056    
     60200   301.24981      1188.6632      700468.61      0.75821616    -2985653.5      24998.544    
     60300   299.63691     -1270.7345      700700.5       0.75796522    -2985636.8      24864.701    
     60400   299.7271       563.27212      700624.61      0.75804732    -2985776        24872.185    
     60500   296.11301      291.85944      700785.35      0.75787346    -2985706.5      24572.278    
     60600   300.71831      599.3228       700556.42      0.75812111    -2985882.2      24954.439    
     60700   299.47561     -753.90522      700685.69      0.75798124    -2985600        24851.316    
     60800   300.78945     -74.837806      700660.85      0.75800812    -2985680.5      24960.342    
     60900   301.3549      -295.27118      700361.51      0.7583321     -2985825.4      25007.265    
     61000   299.81786      1112.4733      699878.01      0.75885598    -2985862.5      24879.717    
     61100   296.87997     -398.16079      699645.8       0.75910785    -2985560.7      24635.923    
     61200   299.39484      921.37466      698891.02      0.75992766    -2985601.8      24844.613    
     61300   298.81564     -1085.2955      698629.17      0.76021248    -2985475.9      24796.55     
     61400   301.73329      1090.737       698108.8       0.76077914    -2985619        25038.665    
     61500   299.26683     -543.69306      697983.68      0.76091552    -2985462.3      24833.991    
     61600   298.02412      351.99602      697512.36      0.76142968    -2985584.4      24730.867    
     61700   299.02418      1147.2773      697104.74      0.76187491    -2985596.3      24813.855    
     61800   299.65934     -286.63356      697018.34      0.76196935    -2985485.1      24866.562    
     61900   302.41256      508.67858      696628.79      0.76239544    -2985492.6      25095.032    
     62000   301.31443      163.94266      696435.04      0.76260754    -2985500.6      25003.907    
     62100   298.97618      888.93016      696410.78      0.76263411    -2985655.5      24809.872    
     62200   300.69402     -437.42638      696260.54      0.76279867    -2985782.8      24952.423    
     62300   301.02462      62.280739      695723.34      0.76338766    -2985756.9      24979.857    
     62400   300.27058      1135.391       695364.52      0.76378159    -2985558.4      24917.285    
     62500   301.21105      1327.4783      695162.89      0.76400311    -2985579.8      24995.328    
     62600   299.69311     -234.58414      694893.12      0.76429971    -2985762.7      24869.365    
     62700   299.1019       497.69967      694378.49      0.76486616    -2985824.8      24820.304    
     62800   299.55914     -1084.7013      694256.58      0.76500047    -2985832        24858.247    
     62900   298.56405      584.24325      694218.52      0.76504241    -2985702.1      24775.672    
     63000   301.15096      584.75722      694199.87      0.76506297    -2985577.9      24990.341    
     63100   301.93168     -369.48204      694403.96      0.76483811    -2985594.3      25055.128    
     63200   299.73279     -661.50453      694575.38      0.76464935    -2985628.8      24872.657    
     63300   298.40946      33.661755      694269.11      0.76498667    -2985601.5      24762.844    
     63400   299.70674     -547.32662      694000.23      0.76528305    -2985671.5      24870.495    
     63500   300.33512     -479.38768      693707.38      0.76560612    -2985697.4      24922.641    
     63600   304.29618     -1176.6657      693533.72      0.76579783    -2985790.8      25251.34     
     63700   300.88239      535.83837      693101.16      0.76627576    -2985561.9      24968.055    
     63800   300.60077      469.84601      692699.63      0.76671994    -2985804.1      24944.685    
     63900   300.35421     -723.20787      692450.41      0.76699588    -2985925.9      24924.225    
     64000   299.13388      210.29677      691998.02      0.76749731    -2985849.6      24822.958    
     64100   301.0267      -1297.5549      691882.15      0.76762584    -2985918.6      24980.029    
     64200   300.87283     -472.39509      691764.55      0.76775634    -2985904        24967.261    
     64300   300.21241     -133.74857      691590.79      0.76794922    -2986009.5      24912.458    
     64400   298.67063     -740.33329      691487.37      0.76806409    -2985916.3      24784.516    
     64500   300.482       -736.54957      691270.65      0.76830488    -2986013.7      24934.829    
     64600   300.56817     -1018.0076      690986.49      0.76862084    -2985968.2      24941.979    
     64700   302.48758      427.86752      690690.26      0.76895049    -2985980.9      25101.258    
     64800   303.40986      275.39658      690398.16      0.76927583    -2985903.9      25177.791    
     64900   300.13528     -688.87942      690157.34      0.76954425    -2985859.9      24906.057    
     65000   298.81078      744.22967      689860.3       0.7698756     -2985957        24796.146    
     65100   298.28671     -367.40995      689649.53      0.77011089    -2985809.9      24752.658    
     65200   301.81104      466.88971      689286.06      0.77051698    -2985913.5      25045.116    
     65300   300.56746      958.25673      688829.43      0.77102777    -2985842.3      24941.921    
     65400   300.00964     -444.85913      688697.79      0.77117514    -2985907.4      24895.631    
     65500   299.23998     -1541.1389      688686.35      0.77118795    -2985827        24831.762    
     65600   303.53449      1533.0603      688680.77      0.7711942     -2985824.1      25188.133    
     65700   300.31867     -1220.5921      688882.86      0.77096796    -2985673.3      24921.276    
     65800   299.78651     -575.79521      688912.84      0.77093441    -2985826.6      24877.115    
     65900   299.48713      521.81778      688893.09      0.77095651    -2985844.2      24852.272    
     66000   302.7125      -1099.3532      689049.6       0.7707814     -2986061.8      25119.922    
     66100   296.71582     -1053.1899      689241.36      0.77056695    -2985798        24622.301    
     66200   299.22295      246.32331      689094.05      0.77073167    -2986028.7      24830.349    
     66300   299.63062     -674.58719      688720.65      0.77114954    -2985833.7      24864.179    
     66400   300.64928      995.21756      687855.03      0.77211998    -2985746.4      24948.711    
     66500   300.71438      488.50596      687121.68      0.77294405    -2985851.8      24954.113    
     66600   299.75129     -945.28755      686703.18      0.77341511    -2985907.4      24874.193    
     66700   300.6857      -1683.0015      686000.96      0.77420681    -2986111.1      24951.732    
     66800   299.71755     -199.71793      684970.1       0.77537197    -2986093.3      24871.393    
     66900   299.46062      1062.0029      684055.73      0.7764084     -2986084.4      24850.072    
     67000   300.31681     -344.48168      683639.26      0.77688138    -2986048.8      24921.121    
     67100   300.25186     -412.41735      683153.3       0.77743401    -2985995.2      24915.731    
     67200   300.62522      1651.6545      682767.3       0.77787354    -2986187.8      24946.714    
     67300   298.05972      1249.4436      682780.75      0.77785822    -2986203.2      24733.821    
     67400   299.06861     -540.14187      682649.33      0.77800796    -2986203.2      24817.542    
     67500   300.1161      -816.94015      682528.48      0.77814572    -2986105.7      24904.466    
     67600   301.45424      291.41996      682557.2       0.77811298    -2985992.9      25015.508    
     67700   301.08637      521.4006       682551.78      0.77811916    -2986027.7      24984.982    
     67800   297.32793      45.027766      682440.68      0.77824583    -2986051.3      24673.096    
     67900   298.93644      297.99989      682345.59      0.77835428    -2986164.7      24806.574    
     68000   300.88191     -64.341517      682207.45      0.77851189    -2986162.9      24968.014    
     68100   300.21522     -247.01916      682076.54      0.77866131    -2985991.9      24912.691    
     68200   302.81802      225.40645      681824.54      0.7789491     -2986071.5      25128.679    
     68300   298.51139      326.27469      681480.01      0.77934291    -2986000.2      24771.303    
     68400   298.35962      1020.9123      681131.67      0.77974147    -2986087.6      24758.708    
     68500   300.13193     -190.6278       680979.96      0.77991518    -2986099.6      24905.779    
     68600   300.76766     -24.677084      680806.22      0.78011422    -2986114.9      24958.534    
     68700   296.61552     -52.281436      680755.81      0.78017199    -2986043.4      24613.978    
     68800   299.0917      -622.94544      680600.55      0.78034996    -2986241.5      24819.458    
     68900   299.3345      -1293.0607      680420.07      0.78055694    -2986102.3      24839.607    
     69000   299.29875     -1501.204       680162.67      0.78085234    -2985996.2      24836.64     
     69100   300.06037      1503.9497      679722.05      0.78135852    -2986004.6      24899.841    
     69200   300.68931     -755.26034      679277.64      0.78186971    -2985974.4      24952.032    
     69300   301.04922     -272.37696      678709.47      0.78252425    -2985879.8      24981.899    
     69400   302.60671      1066.4949      678185.52      0.7831288     -2986041.2      25111.143    
     69500   301.52932     -1271.6045      677851         0.78351528    -2986265.4      25021.738    
     69600   299.19447     -398.06897      677322.85      0.78412623    -2986205.6      24827.986    
     69700   298.03356     -665.71171      676930.12      0.78458116    -2986087.9      24731.651    
     69800   301.00003     -190.99629      676540.82      0.78503262    -2986057.5      24977.816    
     69900   301.45943     -354.74491      676294.26      0.78531883    -2986034.1      25015.939    
     70000   300.81212     -393.84729      676267.08      0.78535038    -2986115        24962.224    
     70100   300.39495      627.17227      676158.82      0.78547613    -2986229.7      24927.606    
     70200   300.4611       1754.897       675964.21      0.78570227    -2986288.2      24933.095    
     70300   299.49202      364.24183      675838.93      0.78584792    -2986263.8      24852.677    
     70400   297.23986     -1420.4906      675477.38      0.78626854    -2986318.9      24665.787    
     70500   298.37335      461.37218      674942.18      0.78689202    -2986493        24759.848    
     70600   298.79948      172.63379      674484.67      0.78742578    -2986249.2      24795.209    
     70700   301.03745      2156.0371      674318.16      0.78762022    -2986301.6      24980.922    
     70800   301.32813     -690.82653      674265.27      0.78768199    -2986343.3      25005.043    
     70900   300.70779      571.97383      673769.95      0.78826106    -2986432.3      24953.566    
     71000   297.55995      685.64623      673323.16      0.78878412    -2986336        24692.349    
     71100   300.08591     -407.60782      673055.92      0.78909731    -2986420.2      24901.96     
     71200   302.63808     -179.10027      672906.42      0.78927262    -2986398.1      25113.746    
     71300   298.06468      137.45104      672748.01      0.78945847    -2986117.2      24734.233    
     71400   301.89739      804.23656      672870.27      0.78931502    -2986556.9      25052.282    
     71500   297.52376     -816.91442      673060.34      0.78909212    -2986477.7      24689.346    
     71600   297.12032      200.29057      672893         0.78928836    -2986307.9      24655.868    
     71700   298.39191      468.31205      672589.77      0.7896442     -2986170.1      24761.387    
     71800   302.13991     -640.84468      672227.01      0.79007033    -2986348.7      25072.407    
     71900   300.47619      1470.6163      671934.72      0.79041401    -2986281.7      24934.347    
     72000   301.20651      238.10805      671777.13      0.79059943    -2986551.6      24994.951    
     72100   299.2735      -1149.6067      671835.84      0.79053034    -2986636.5      24834.544    
     72200   298.37229     -68.070702      671665.82      0.79073045    -2986492.5      24759.759    
     72300   300.03393      920.24403      671326.15      0.79113053    -2986296.5      24897.647    
     72400   299.20479     -1421.2043      670885.02      0.79165073    -2986223.4      24828.843    
     72500   301.0847       223.92463      670328.83      0.79230758    -2986482.3      24984.842    
     72600   298.63604     -1624.7459      670343.05      0.79229078    -2986493.2      24781.646    
     72700   299.05969      265.50231      670156.46      0.79251137    -2986546.7      24816.802    
     72800   298.79856     -1710.5775      670051.13      0.79263595    -2986248.6      24795.132    
     72900   302.37101      738.56086      669916.81      0.79279487    -2986395.7      25091.584    
     73000   300.14052      136.67182      669989.31      0.79270908    -2986412.7      24906.492    
     73100   299.93295      1613.3202      669819.53      0.79291002    -2986574.6      24889.267    
     73200   297.67002     -552.65088      669879.85      0.79283862    -2986442.2      24701.483    
     73300   299.45026      912.5212       669790.93      0.79294388    -2986415.4      24849.212    
[...]
    493800   3513.8195      485149.48      65.986119      65.270293      42.415275      182679.76      2.9073095      484718.17      490648.77      480081.49      291586.48     -2781822.4     -2490235.9     -11.621474     -3120.6718      0.030604177   -2696.7231      3331.2546     -366294.07    
    493900   3474.2146      473097.98      65.986119      65.270293      42.42894       182738.62      2.9063732      466531.34      478027.2       474735.4       288299.95     -2778976.4     -2490676.5     -34.350665     -8193.2431      0.030586652   -2697.2671      3331.2546     -365879.72    
    494000   3497.3364      486587.75      65.986119      65.270293      42.440266      182787.39      2.9055976      478679.53      496129.03      484954.69      290218.67     -2780969.5     -2490750.9      11.16827       2252.7358      0.030572128   -2697.8113      3331.2546     -365535.31    
    494100   3523.662       487794.56      65.986119      65.270293      42.451875      182837.4       2.904803       486503.17      488993.76      487886.75      292403.24     -2783028       -2490624.7      22.550976      5417.1708      0.030557239   -2698.3557      3331.3966     -365185.04    
    494200   3520.6338      481086.92      65.986119      65.270293      42.463758      182888.57      2.9039901      477007.68      482626.52      483626.57      292151.95     -2782665.5     -2490513.6      1.5725334      1394.8435      0.030542      -2698.9002      3331.3966     -364824.28    
    494300   3495.006       482074.16      65.986119      65.270293      42.469665      182914.01      2.9035862      480035.04      479775.82      486411.61      290025.28     -2781045       -2491019.7      16.623281      4298.1159      0.030534425   -2699.4448      3331.3966     -364646.29    
    494400   3520.0366      481481.95      65.986119      65.270293      42.482295      182968.41      2.902723       483167.53      477078.53      484199.79      292102.39     -2783764.3     -2491661.9      9.3568434      2339.1151      0.030518226   -2699.9896      3331.3966     -364262.93    
    494500   3490.9927      477222.22      65.986119      65.270293      42.500689      183047.63      2.9014667      469532.91      485444.85      476688.89      289692.25     -2782237.2     -2492545       -20.823136     -4803.6142      0.030494637   -2700.5345      3331.2696     -363705.04    
    494600   3497.4162      477085.91      65.986119      65.270293      42.521632      183137.83      2.9000377      473422.4       484434.41      473400.91      290225.29     -2782902.7     -2492677.4     -36.717801     -7672.401       0.030467779   -2701.0797      3331.2696     -363072.13    
    494700   3486.1976      487179.15      65.986119      65.270293      42.538426      183210.16      2.8988927      485570.48      486417.43      489549.53      289294.34     -2782995       -2493700.6      40.472803      8812.3825      0.030446241   -2701.6251      3331.2696     -362560.84    
    494800   3494.1719      477241.52      65.986119      65.270293      42.570543      183348.49      2.8967057      468270.79      483015.16      480438.62      289956.07     -2784725.5     -2494769.4      3.0286571      344.329        0.030405053   -2702.1708      3331.2696     -361593.9     
    494900   3483.9934      470500.99      65.986119      65.270293      42.602979      183488.19      2.8945002      472041.83      475173.15      464287.98      289111.43     -2784813.9     -2495702.5     -66.691465     -15157.048      0.030363454   -2702.717       3331.2608     -360618.22    
    495000   3500.6146      478415.27      65.986119      65.270293      42.608396      183511.52      2.8941323      480979.59      482642.65      471623.57      290490.7      -2786551.8     -2496061.1     -32.154612     -7713.0331      0.030356508   -2703.2634      3331.2608     -360456.87    
    495100   3538.216       477466.96      65.986119      65.270293      42.592391      183442.59      2.8952198      476617.11      479877.45      475906.34      293610.97     -2789348.5     -2495737.5     -13.462606     -3750.6333      0.030377033   -2703.8098      3331.2608     -360937.68    
    495200   3493.4138      485624.84      65.986119      65.270293      42.566891      183332.76      2.8969542      487621.02      481082.56      488170.93      289893.15     -2784635.8     -2494742.6      37.89849       8003.5438      0.030409736   -2704.3558      3331.2608     -361704.73    
    495300   3493.6441      488221.21      65.986119      65.270293      42.561441      183309.29      2.8973252      489942.56      489656.96      485064.11      289912.27     -2783561.5     -2493649.2      17.875489      4787.63        0.030416726   -2704.9017      3331.3403     -361872.1     
    495400   3494.7471      486937.14      65.986119      65.270293      42.570636      183348.89      2.8966994      482819.16      488990.6       489001.66      290003.8      -2784134.7     -2494130.9      37.589982      8909.2258      0.030404934   -2705.4476      3331.3403     -361594.73    
    495500   3507.9259      487046.38      65.986119      65.270293      42.567614      183335.88      2.896905       487411.03      491620.11      482108         291097.41     -2785267       -2494169.6      7.1742217      1955.0934      0.030408809   -2705.9935      3331.3403     -361684.5     
    495600   3491.2017      472948.85      65.986119      65.270293      42.559457      183300.74      2.8974602      469543.99      475063.54      474239.03      289709.59     -2783422.6     -2493713       -30.144022     -6077.1488      0.030419269   -2706.5394      3331.3403     -361931.08    
    495700   3499.6282      486006.64      65.986119      65.270293      42.544814      183237.68      2.8984575      483774.46      484909.18      489336.27      290408.85     -2783408.1     -2492999.2      34.690463      8726.9791      0.03043805    -2707.0851      3331.1498     -362373.54    
    495800   3517.714       485682.15      65.986119      65.270293      42.54008       183217.29      2.89878        490853.28      485762.37      480430.81      291909.66     -2785066.4     -2493156.8     -3.9219435     -273.23296      0.03044412    -2707.6307      3331.1498     -362516.99    
    495900   3517.6571      480687.91      65.986119      65.270293      42.547616      183249.74      2.8982666      480234.14      481060.41      480769.19      291904.93     -2785702.6     -2493797.6      0.76600501     215.98444      0.030434456   -2708.1763      3331.1498     -362289.54    
    496000   3480.084       483411.58      65.986119      65.270293      42.545525      183240.74      2.898409       481520.23      483626.3       485088.22      288787.02     -2782659.6     -2493872.5      20.807134      4493.1701      0.030437137   -2708.722       3331.1498     -362350.57    
    496100   3495.5873      479249.93      65.986119      65.270293      42.542724      183228.67      2.8985999      475055.68      480766.77      481927.35      290073.52     -2783615.7     -2493542.1      4.8789047      1276.2283      0.03044073    -2709.2676      3330.8742     -362437.08    
    496200   3490.9735      483698.16      65.986119      65.270293      42.547261      183248.22      2.8982907      483463.4       491315.22      476315.86      289690.65     -2784147.5     -2494456.9     -15.228395     -4244.4356      0.03043491    -2709.8132      3330.8742     -362300.1     
    496300   3474.2936      478951.42      65.986119      65.270293      42.553417      183274.73      2.8978715      476010.86      481098.44      479744.98      288306.51     -2783592.7     -2495286.2      4.6028123     -692.10893      0.030427016   -2710.3588      3330.8742     -362114.09    
    496400   3471.5605      482379.17      65.986119      65.270293      42.549591      183258.25      2.898132       479288.47      482718.3       485130.75      288079.71     -2783222.9     -2495143.1      28.276476      4617.089       0.030431922   -2710.9046      3330.8742     -362228.65    
    496500   3477.138       476624.79      65.986119      65.270293      42.540204      183217.82      2.8987715      480564.28      472474.37      476835.72      288542.55     -2783266.1     -2494723.6     -10.642584     -3865.8288      0.03044396    -2711.4502      3331.1119     -362512.6     
    496600   3489.9805      491183.69      65.986119      65.270293      42.52516       183153.03      2.8997971      489520.48      485766.76      498263.83      289608.25     -2783954       -2494345.7      84.773198      17261.14       0.030463255   -2711.9957      3331.1119     -362967.57    
    496700   3481.0069      486484.17      65.986119      65.270293      42.533443      183188.7       2.8992323      485850.62      487830.71      485771.18      288863.6      -2782717.4     -2493853.8      24.885019      4934.3012      0.030452631   -2712.5411      3331.1119     -362715.65    
    496800   3487.3048      487162.46      65.986119      65.270293      42.54686       183246.49      2.8983181      485404.91      487893.57      488188.92      289386.21     -2783184.7     -2493798.5      34.162013      7620.5815      0.030435425   -2713.0867      3331.1119     -362311.82    
    496900   3494.2004      465423.42      65.986119      65.270293      42.569628      183344.55      2.8967679      463924.7       467090.56      465254.99      289958.43     -2785082.2     -2495123.7     -62.875108     -14857.605      0.030406226   -2713.6324      3331.4508     -361624.84    
    497000   3491.7574      479268.38      65.986119      65.270293      42.560652      183305.89      2.8973789      471903.38      488637.4       477264.36      289755.71     -2784312.6     -2494556.9     -11.589263     -3027.919       0.030417738   -2714.1783      3331.4508     -361893.79    
    497100   3506.751       479449.85      65.986119      65.270293      42.556013      183285.91      2.8976947      478562.28      481837.52      477949.76      290999.91     -2785355.1     -2494355.1     -9.3043704     -2435.3652      0.030423687   -2714.7241      3331.4508     -362036.05    
    497200   3482.9198      480592.97      65.986119      65.270293      42.551905      183268.22      2.8979745      477113.09      487333.37      477332.47      289022.34     -2783342.4     -2494320.1     -11.911361     -3134.8913      0.030428956   -2715.2698      3331.4508     -362159.98    
    497300   3493.9295      475864.19      65.986119      65.270293      42.555277      183282.74      2.8977448      477983.77      478810.76      470798.04      289935.96     -2784274.2     -2494338.2     -41.445176     -9601.8215      0.030424631   -2715.8156      3331.6526     -362058.34    
    497400   3466.3716      475618.8       65.986119      65.270293      42.55524       183282.58      2.8977473      475339.42      471903.2       479613.78      287649.12     -2783009.4     -2495360.3      4.2928666     -786.80326      0.030424678   -2716.3613      3331.6526     -362058.68    
    497500   3463.3665      480732.83      65.986119      65.270293      42.560426      183304.92      2.8973943      479150.15      484016.66      479031.68      287399.75     -2782580.9     -2495181.1      0.12478705    -1265.1054      0.030418027   -2716.9071      3331.6526     -361902.9     
    497600   3501.5778      489054.17      65.986119      65.270293      42.56014       183303.68      2.8974138      493787.89      487290.22      486084.4       290570.63     -2785706       -2495135.3      31.530234      5781.8769      0.030418394   -2717.4529      3331.6526     -361909.27    
    497700   3484.8398      483071.76      65.986119      65.270293      42.584792      183409.86      2.8957364      480481.88      477713.05      491020.36      289181.67     -2785156.9     -2495975.2      56.428673      11211.285      0.030386779   -2717.9989      3332.0528     -361161.79    
    497800   3492.955       473106.3       65.986119      65.270293      42.619328      183558.6       2.8933899      476662.07      470880.94      471775.88      289855.08     -2786447.5     -2496592.4     -29.25832      -7341.9074      0.030342488   -2718.5452      3332.0528     -360120.29    
    497900   3493.7868      479976.59      65.986119      65.270293      42.641561      183654.36      2.8918813      485081.4       475139.76      479708.62      289924.11     -2787508       -2497583.9      10.19038       1035.8566      0.030313974   -2719.092       3332.0528     -359457.18    
    498000   3509.6352      471798.3       65.986119      65.270293      42.658777      183728.51      2.8907143      473668.95      468698.59      473027.35      291239.25     -2789213.6     -2497974.4     -18.901146     -5300.8211      0.030291897   -2719.6389      3332.0528     -358941.52    
    498100   3469.4279      469203.07      65.986119      65.270293      42.664582      183753.51      2.8903209      461531.74      477769         468308.46      287902.74     -2786458.7     -2498555.9     -37.009584     -9903.5131      0.030284452   -2720.1861      3332.4657     -358765.36    
    498200   3462.1764      472132.03      65.986119      65.270293      42.624669      183581.61      2.8930274      470064.5       475193.4       471138.18      287300.99     -2785001.6     -2497700.7     -25.917768     -7872.7117      0.030335638   -2720.733       3332.4657     -359933.54    
    498300   3460.6667      482884.59      65.986119      65.270293      42.559294      183300.04      2.8974713      479599.88      487969.98      481083.92      287175.72     -2783079.3     -2495903.6      13.793092      764.46428      0.030419479   -2721.2792      3332.4657     -361914.21    
    498400   3483.2347      475814.35      65.986119      65.270293      42.503373      183059.19      2.9012835      473212.86      479925.32      474304.85      289048.46     -2783164.8     -2494116.4     -22.325898     -7133.9256      0.030491195   -2721.8247      3332.4657     -363599.71    
    498500   3498.1763      486851.19      65.986119      65.270293      42.4437        182802.18      2.9053625      485222.17      487928.6       487402.79      290288.36     -2782379.1     -2492090.8      29.964792      4769.5698      0.030567724   -2722.3694      3333.1595     -365415.73    
    498600   3495.7112      483603.14      65.986119      65.270293      42.406764      182643.1       2.9078931      489532.41      475750.67      485526.34      290083.8      -2781483.2     -2491399.4      20.767707      2153.802       0.030615093   -2722.9134      3333.1595     -366550.32    
    498700   3480.5125      496973.99      65.986119      65.270293      42.399095      182610.07      2.908419       492769.61      498469.74      499682.63      288822.57     -2780405.3     -2491582.7      86.555021      16156.586      0.030624928   -2723.4572      3333.1595     -366782.12    
    498800   3505.1477      483286.03      65.986119      65.270293      42.446962      182816.24      2.9051392      489485.05      479407.29      480965.75      290866.87     -2782547       -2491680.2     -1.8433562     -1602.1586      0.03056354    -2724.0012      3333.1595     -365315.1     
    498900   3515.6476      478846.28      65.986119      65.270293      42.50828       183080.33      2.9009486      475005.58      474639.87      486893.39      291738.18     -2785050.5     -2493312.3      29.009427      5552.8231      0.030484903   -2724.5459      3333.9579     -363445.33    
    499000   3512.3348      477864.07      65.986119      65.270293      42.57722       183377.25      2.8962514      478582.77      483862.64      471146.8       291463.28     -2786649.5     -2495186.2     -36.749329     -8813.8367      0.03039649    -2725.0915      3333.9579     -361373.15    
    499100   3500.3414      464384.22      65.986119      65.270293      42.626491      183589.46      2.8929037      468387.47      466317.43      458447.76      290468.03     -2787273.4     -2496805.3     -88.276709     -20526.641      0.030333301   -2725.6379      3333.9579     -359904.19    
    499200   3492.8666      476362.33      65.986119      65.270293      42.631162      183609.57      2.8925868      484571.27      476417.62      468098.09      289847.75     -2786712.2     -2496864.5     -45.145833     -10782.828      0.030327312   -2726.1846      3333.9579     -359772.13    
    499300   3479.4411      476540.22      65.986119      65.270293      42.612508      183529.23      2.893853       477464.24      480946.53      471209.9       288733.66     -2785602.5     -2496868.8     -29.511872     -8044.3902      0.030351234   -2726.7313      3334.2745     -360331.11    
    499400   3513.9193      483162.69      65.986119      65.270293      42.578854      183384.29      2.8961403      480258.69      484825.32      484404.06      291594.76     -2787345.5     -2495750.7      25.961241      4476.1387      0.030394394   -2727.2775      3334.2745     -361344.46    
    499500   3498.9751      478027.79      65.986119      65.270293      42.554041      183277.42      2.897829       478773.25      478952.92      476357.2       290354.65     -2784875       -2494520.4     -15.278056     -4067.3982      0.030426216   -2727.8234      3334.2745     -362089.35    
    499600   3490.7991      491094.4       65.986119      65.270293      42.522921      183143.39      2.8999497      494254.71      489601.97      489426.5       289676.18     -2783145.4     -2493469.3      39.978268      8379.0034      0.030466126   -2728.369       3334.2745     -363030.06    
    499700   3492.1561      485319.87      65.986119      65.270293      42.499653      183043.17      2.9015374      483519.05      484598.5       487842.05      289788.79     -2782823.8     -2493035        32.411389      6328.8162      0.030495966   -2728.9142      3334.6701     -363738.24    
    499800   3484.0717      493330.64      65.986119      65.270293      42.49632       183028.82      2.901765       497667.18      491699.71      490625.02      289117.93     -2782506.4     -2493388.5      47.377055      9045.0735      0.03050024    -2729.4592      3334.6701     -363838.1     
    499900   3471.8299      476436.53      65.986119      65.270293      42.523437      183145.61      2.8999145      474206.7       481223.65      473879.25      288102.07     -2782552.5     -2494450.4     -24.048075     -7157.9152      0.030465464   -2730.0043      3334.6701     -363010.14    
    500000   3489.9461      469676.99      65.986119      65.270293      42.549158      183256.39      2.8981615      473698.73      467235.07      468097.16      289605.4      -2784877.4     -2495272       -47.395245     -12425.17       0.030432478   -2730.5498      3334.6701     -362240.88    
Loop time of 238478 on 96 procs for 500000 steps with 27840 atoms

Performance: 0.018 ns/day, 1324.880 hours/ns, 2.097 timesteps/s
82.5% CPU use with 96 MPI tasks x 1 OpenMP threads

MPI task timing breakdown:
Section |  min time  |  avg time  |  max time  |%varavg| %total
---------------------------------------------------------------
Pair    | 57917      | 61379      | 64913      | 578.7 | 25.74
Neigh   | 1284.4     | 1354.9     | 1405.1     |  71.5 |  0.57
Comm    | 9167.4     | 12778      | 16883      |1313.2 |  5.36
Output  | 49.623     | 71.317     | 71.66      |  26.4 |  0.03
Modify  | 1.6148e+05 | 1.6232e+05 | 1.6302e+05 | 100.6 | 68.06
Other   |            | 577.8      |            |       |  0.24

Nlocal:            290 ave         303 max         269 min
Histogram: 2 1 4 13 7 16 13 18 11 11
Nghost:        6226.34 ave        6326 max        6123 min
Histogram: 2 6 10 9 19 20 11 10 5 4
Neighs:         216936 ave      229801 max      200058 min
Histogram: 2 4 7 11 15 13 16 12 7 9

Total # of neighbors = 20825814
Ave neighs/atom = 748.05366
Neighbor list builds = 22043
Dangerous builds = 0
Total wall time: 96:05:34
